3
Lattice="10.0 0.0 0.0 0.0 10.0 0.0 0.0 0.0 10.0" Properties=species:S:1:pos:R:3:forces:R:3 energy=-593.6701598080588 pbc="T T T"
O        5.00000000       4.82418565       5.29815450       0.00000000      31.22263082      36.76981108
H        5.00000000       5.58742465       4.70184550       0.00000000       1.73799984       1.01589577
H        5.00000000       4.41257535       4.77131852       0.00000000     -32.96063066     -37.78570684
3
Lattice="10.0 0.0 0.0 0.0 10.0 0.0 0.0 0.0 10.0" Properties=species:S:1:pos:R:3:forces:R:3 energy=-593.8003283806571 pbc="T T T"
O        5.00000000       4.84523561       5.29815450       0.00000000      34.13157374      34.48883970
H        5.00000000       5.60847461       4.70184550       0.00000000       1.21892393       0.80832264
H        5.00000000       4.39152539       4.80710845       0.00000000     -35.35049767     -35.29716234
3
Lattice="10.0 0.0 0.0 0.0 10.0 0.0 0.0 0.0 10.0" Properties=species:S:1:pos:R:3:forces:R:3 energy=-593.8932818723581 pbc="T T T"
O        5.00000000       4.86473591       5.29815450       0.00000000      36.85486929      32.02326390
H        5.00000000       5.62797491       4.70184550       0.00000000       0.74410247       0.61211910
H        5.00000000       4.37202509       4.84625271       0.00000000     -37.59897176     -32.63538300
3
Lattice="10.0 0.0 0.0 0.0 10.0 0.0 0.0 0.0 10.0" Properties=species:S:1:pos:R:3:forces:R:3 energy=-593.9519281111988 pbc="T T T"
O        5.00000000       4.88255336       5.29815450       0.00000000      39.37858046      29.37058746
H        5.00000000       5.64579236       4.70184550       0.00000000       0.31042192       0.43083968
H        5.00000000       4.35420764       4.88848392       0.00000000     -39.68900238     -29.80142714
3
Lattice="10.0 0.0 0.0 0.0 10.0 0.0 0.0 0.0 10.0" Properties=species:S:1:pos:R:3:forces:R:3 energy=-593.9792373972737 pbc="T T T"
O        5.00000000       4.89856624       5.29815450       0.00000000      41.68908472      26.53248331
H        5.00000000       5.66180524       4.70184550       0.00000000      -0.08458841       0.26676911
H        5.00000000       4.33819476       4.93351360       0.00000000     -41.60449631     -26.79925242
3
Lattice="10.0 0.0 0.0 0.0 10.0 0.0 0.0 0.0 10.0" Properties=species:S:1:pos:R:3:forces:R:3 energy=-593.9783075573272 pbc="T T T"
O        5.00000000       4.91266517       5.29815450       0.00000000      43.77143108      23.50943335
H        5.00000000       5.67590417       4.70184550       0.00000000      -0.44209712       0.12369561
H        5.00000000       4.32409583       4.98103414       0.00000000     -43.32933396     -23.63312897
3
Lattice="10.0 0.0 0.0 0.0 10.0 0.0 0.0 0.0 10.0" Properties=species:S:1:pos:R:3:forces:R:3 energy=-593.9524083476302 pbc="T T T"
O        5.00000000       4.92475383       5.29815450       0.00000000      45.60827201      20.30400223
H        5.00000000       5.68799283       4.70184550       0.00000000      -0.76291393       0.00469814
H        5.00000000       4.31200717       5.03072094       0.00000000     -44.84535807     -20.30870037
3
Lattice="10.0 0.0 0.0 0.0 10.0 0.0 0.0 0.0 10.0" Properties=species:S:1:pos:R:3:forces:R:3 energy=-593.9050058034 pbc="T T T"
O        5.00000000       4.93474966       5.29815450       0.00000000      47.18109329      16.91828957
H        5.00000000       5.69798866       4.70184550       0.00000000      -1.04722671      -0.08587814
H        5.00000000       4.30201134       5.08223458       0.00000000     -46.13386658     -16.83241143
3
Lattice="10.0 0.0 0.0 0.0 10.0 0.0 0.0 0.0 10.0" Properties=species:S:1:pos:R:3:forces:R:3 energy=-593.8397718992859 pbc="T T T"
O        5.00000000       4.94258436       5.29815450       0.00000000      48.47148533      13.35894010
H        5.00000000       5.70582336       4.70184550       0.00000000      -1.29512269      -0.14481655
H        5.00000000       4.29417664       5.13522317       0.00000000     -47.17636263     -13.21412355
3
Lattice="10.0 0.0 0.0 0.0 10.0 0.0 0.0 0.0 10.0" Properties=species:S:1:pos:R:3:forces:R:3 energy=-593.7605763687986 pbc="T T T"
O        5.00000000       4.94820442       5.29815450       0.00000000      49.45893607       9.63724291
H        5.00000000       5.71144342       4.70184550       0.00000000      -1.50611648      -0.16994902
H        5.00000000       4.28855658       5.18932475       0.00000000     -47.95281959      -9.46729389
3
Lattice="10.0 0.0 0.0 0.0 10.0 0.0 0.0 0.0 10.0" Properties=species:S:1:pos:R:3:forces:R:3 energy=-593.6714545457329 pbc="T T T"
O        5.00000000       4.95157145       5.29815450       0.00000000      50.12460928       5.76692219
H        5.00000000       5.71481045       4.70184550       0.00000000      -1.68004841      -0.15945444
H        5.00000000       4.28518955       5.24416974       0.00000000     -48.44456087      -5.60746775
3
Lattice="10.0 0.0 0.0 0.0 10.0 0.0 0.0 0.0 10.0" Properties=species:S:1:pos:R:3:forces:R:3 energy=-593.576558558526 pbc="T T T"
O        5.00000000       4.95266244       5.29754000       0.00000000      50.44794432       1.76664302
H        5.00000000       5.71590144       4.70123100       0.00000000      -1.81593166      -0.11220561
H        5.00000000       4.28409856       5.29876900       0.00000000     -48.63201266      -1.65443742
3
Lattice="10.0 0.0 0.0 0.0 10.0 0.0 0.0 0.0 10.0" Properties=species:S:1:pos:R:3:forces:R:3 energy=-593.480084880766 pbc="T T T"
O        5.00000000       4.95146996       5.26993731       0.00000000      50.41200152      -2.33929853
H        5.00000000       5.71470896       4.67362831       0.00000000      -1.91339100      -0.02844151
H        5.00000000       4.28529104       5.32637169       0.00000000     -48.49861051       2.36774005
3
Lattice="10.0 0.0 0.0 0.0 10.0 0.0 0.0 0.0 10.0" Properties=species:S:1:pos:R:3:forces:R:3 energy=-593.3861777131372 pbc="T T T"
O        5.00000000       4.94800213       5.24252738       0.00000000      50.00176894      -6.52062299
H        5.00000000       5.71124113       4.64621838       0.00000000      -1.97194445       0.08985162
H        5.00000000       4.28875887       5.35378162       0.00000000     -48.02982449       6.43077137
3
Lattice="10.0 0.0 0.0 0.0 10.0 0.0 0.0 0.0 10.0" Properties=species:S:1:pos:R:3:forces:R:3 energy=-593.298815837327 pbc="T T T"
O        5.00000000       4.94228265       5.21549743       0.00000000      49.20614538     -10.74121548
H        5.00000000       5.70552165       4.61918843       0.00000000      -1.99143830       0.23907132
H        5.00000000       4.29447835       5.38081157       0.00000000     -47.21470707      10.50214416
3
Lattice="10.0 0.0 0.0 0.0 10.0 0.0 0.0 0.0 10.0" Properties=species:S:1:pos:R:3:forces:R:3 energy=-593.2216808008953 pbc="T T T"
O        5.00000000       4.93435060       5.18903212       0.00000000      48.01969623     -14.95962867
H        5.00000000       5.69758960       4.59272312       0.00000000      -1.97306896       0.41411174
H        5.00000000       4.30241040       5.40727688       0.00000000     -46.04662728      14.54551693
3
Lattice="10.0 0.0 0.0 0.0 10.0 0.0 0.0 0.0 10.0" Properties=species:S:1:pos:R:3:forces:R:3 energy=-593.1580282831198 pbc="T T T"
O        5.00000000       4.92426014       5.16331223       0.00000000      46.44322826     -19.13002703
H        5.00000000       5.68749914       4.56700323       0.00000000      -1.91810145       0.60829608
H        5.00000000       4.31250086       5.43299677       0.00000000     -44.52512681      18.52173095
3
Lattice="10.0 0.0 0.0 0.0 10.0 0.0 0.0 0.0 10.0" Properties=species:S:1:pos:R:3:forces:R:3 energy=-593.110547018147 pbc="T T T"
O        5.00000000       4.91208022       5.13851344       0.00000000      44.48524854     -23.20334997
H        5.00000000       5.67531922       4.54220444       0.00000000      -1.82943602       0.81378348
H        5.00000000       4.32468078       5.45779556       0.00000000     -42.65581252      22.38956649
3
Lattice="10.0 0.0 0.0 0.0 10.0 0.0 0.0 0.0 10.0" Properties=species:S:1:pos:R:3:forces:R:3 energy=-593.0812538574933 pbc="T T T"
O        5.00000000       4.89789404       5.11480516       0.00000000      42.16195623     -27.12966800
H        5.00000000       5.66113304       4.51849616       0.00000000      -1.71093323       1.02205685
H        5.00000000       4.33886696       5.48150384       0.00000000     -40.45102300      26.10761115
3
Lattice="10.0 0.0 0.0 0.0 10.0 0.0 0.0 0.0 10.0" Properties=species:S:1:pos:R:3:forces:R:3 energy=-593.0713937311723 pbc="T T T"
O        5.00000000       4.88179849       5.09234935       0.00000000      39.49730972     -30.85981206
H        5.00000000       5.64503749       4.49604035       0.00000000      -1.56777407       1.22442504
H        5.00000000       4.35496251       5.50395965       0.00000000     -37.92953565      29.63538702
3
Lattice="10.0 0.0 0.0 0.0 10.0 0.0 0.0 0.0 10.0" Properties=species:S:1:pos:R:3:forces:R:3 energy=-596.2666519878658 pbc="T T T"
O        5.00000000       4.84473848       5.29815450       0.00000000      18.18853013      20.75225312
H        5.00000000       5.60797748       4.70184550       0.00000000       1.64354672       0.91848283
H        5.00000000       4.39202252       4.71870579       0.00000000     -19.83207684     -21.67073595
3
Lattice="10.0 0.0 0.0 0.0 10.0 0.0 0.0 0.0 10.0" Properties=species:S:1:pos:R:3:forces:R:3 energy=-596.3862970414725 pbc="T T T"
O        5.00000000       4.86789060       5.29815450       0.00000000      19.83537728      19.56487202
H        5.00000000       5.63112960       4.70184550       0.00000000       1.14787015       0.70089286
H        5.00000000       4.36887040       4.75806989       0.00000000     -20.98324743     -20.26576488
3
Lattice="10.0 0.0 0.0 0.0 10.0 0.0 0.0 0.0 10.0" Properties=species:S:1:pos:R:3:forces:R:3 energy=-596.4692695784425 pbc="T T T"
O        5.00000000       4.88933832       5.29815450       0.00000000      21.38702835      18.29067746
H        5.00000000       5.65257732       4.70184550       0.00000000       0.69520742       0.49755434
H        5.00000000       4.34742268       4.80112331       0.00000000     -22.08223577     -18.78823180
3
Lattice="10.0 0.0 0.0 0.0 10.0 0.0 0.0 0.0 10.0" Properties=species:S:1:pos:R:3:forces:R:3 energy=-596.5183998974228 pbc="T T T"
O        5.00000000       4.90893511       5.29815450       0.00000000      22.83825032      16.92581087
H        5.00000000       5.67217411       4.70184550       0.00000000       0.28006175       0.30820792
H        5.00000000       4.32782589       4.84757196       0.00000000     -23.11831207     -17.23401879
3
Lattice="10.0 0.0 0.0 0.0 10.0 0.0 0.0 0.0 10.0" Properties=species:S:1:pos:R:3:forces:R:3 energy=-596.5365887527615 pbc="T T T"
O        5.00000000       4.92654713       5.29815450       0.00000000      24.18251389      15.46120548
H        5.00000000       5.68978613       4.70184550       0.00000000      -0.09843325       0.13681617
H        5.00000000       4.31021387       4.89709855       0.00000000     -24.08408065     -15.59802165
3
Lattice="10.0 0.0 0.0 0.0 10.0 0.0 0.0 0.0 10.0" Properties=species:S:1:pos:R:3:forces:R:3 energy=-596.526876120815 pbc="T T T"
O        5.00000000       4.94205405       5.29815450       0.00000000      25.41067683      13.88861678
H        5.00000000       5.70529305       4.70184550       0.00000000      -0.44107419      -0.01305539
H        5.00000000       4.29470695       4.94936476       0.00000000     -24.96960264     -13.87556139
3
Lattice="10.0 0.0 0.0 0.0 10.0 0.0 0.0 0.0 10.0" Properties=species:S:1:pos:R:3:forces:R:3 energy=-596.4924834926923 pbc="T T T"
O        5.00000000       4.95534996       5.29815450       0.00000000      26.51272772      12.20089970
H        5.00000000       5.71858896       4.70184550       0.00000000      -0.74917712      -0.13779542
H        5.00000000       4.28141104       5.00401355       0.00000000     -25.76355059     -12.06310429
3
Lattice="10.0 0.0 0.0 0.0 10.0 0.0 0.0 0.0 10.0" Properties=species:S:1:pos:R:3:forces:R:3 energy=-596.436846661016 pbc="T T T"
O        5.00000000       4.96634402       5.29815450       0.00000000      27.47566406      10.39131573
H        5.00000000       5.72958302       4.70184550       0.00000000      -1.02188507      -0.23326266
H        5.00000000       4.27041698       5.06067163       0.00000000     -26.45377899     -10.15805306
3
Lattice="10.0 0.0 0.0 0.0 10.0 0.0 0.0 0.0 10.0" Properties=species:S:1:pos:R:3:forces:R:3 energy=-596.3636229264063 pbc="T T T"
O        5.00000000       4.97496114       5.29815450       0.00000000      28.28563188       8.45694474
H        5.00000000       5.73820014       4.70184550       0.00000000      -1.25924353      -0.29650202
H        5.00000000       4.26179986       5.11895195       0.00000000     -27.02638835      -8.16044272
3
Lattice="10.0 0.0 0.0 0.0 10.0 0.0 0.0 0.0 10.0" Properties=species:S:1:pos:R:3:forces:R:3 energy=-596.2766877704349 pbc="T T T"
O        5.00000000       4.98114245       5.29815450       0.00000000      28.92611015       6.39718199
H        5.00000000       5.74438145       4.70184550       0.00000000      -1.46161289      -0.32483097
H        5.00000000       4.25561855       5.17845641       0.00000000     -27.46449726      -6.07235103
3
Lattice="10.0 0.0 0.0 0.0 10.0 0.0 0.0 0.0 10.0" Properties=species:S:1:pos:R:3:forces:R:3 energy=-596.180109198225 pbc="T T T"
O        5.00000000       4.98484573       5.29815450       0.00000000      29.38081251       4.21432482
H        5.00000000       5.74808473       4.70184550       0.00000000      -1.62737137      -0.31575109
H        5.00000000       4.25191527       5.23877853       0.00000000     -27.75344114      -3.89857373
3
Lattice="10.0 0.0 0.0 0.0 10.0 0.0 0.0 0.0 10.0" Properties=species:S:1:pos:R:3:forces:R:3 energy=-596.0780977683588 pbc="T T T"
O        5.00000000       4.98604568       5.29747863       0.00000000      29.63230698       1.91617250
H        5.00000000       5.74928468       4.70116963       0.00000000      -1.75604472      -0.26833342
H        5.00000000       4.25071532       5.29883037       0.00000000     -27.87626226      -1.64783908
3
Lattice="10.0 0.0 0.0 0.0 10.0 0.0 0.0 0.0 10.0" Properties=species:S:1:pos:R:3:forces:R:3 energy=-595.9749309752405 pbc="T T T"
O        5.00000000       4.98473410       5.26711939       0.00000000      29.66457331      -0.48491456
H        5.00000000       5.74797310       4.67081039       0.00000000      -1.84682241      -0.18263854
H        5.00000000       4.25202690       5.32918961       0.00000000     -27.81775090       0.66755310
3
Lattice="10.0 0.0 0.0 0.0 10.0 0.0 0.0 0.0 10.0" Properties=species:S:1:pos:R:3:forces:R:3 energy=-595.8748556165606 pbc="T T T"
O        5.00000000       4.98091996       5.23697215       0.00000000      29.46267026      -2.97078532
H        5.00000000       5.74415896       4.64066315       0.00000000      -1.89870984      -0.06046979
H        5.00000000       4.25584104       5.35933685       0.00000000     -27.56396042       3.03125512
3
Lattice="10.0 0.0 0.0 0.0 10.0 0.0 0.0 0.0 10.0" Properties=species:S:1:pos:R:3:forces:R:3 energy=-595.7819690335219 pbc="T T T"
O        5.00000000       4.97462930       5.20724284       0.00000000      29.01483606      -5.51736855
H        5.00000000       5.73786830       4.61093384       0.00000000      -1.91172720       0.09464389
H        5.00000000       4.26213170       5.38906616       0.00000000     -27.10310886       5.42272466
3
Lattice="10.0 0.0 0.0 0.0 10.0 0.0 0.0 0.0 10.0" Properties=species:S:1:pos:R:3:forces:R:3 energy=-595.7000819325104 pbc="T T T"
O        5.00000000       4.96590511       5.17813456       0.00000000      28.31403254      -8.09545189
H        5.00000000       5.72914411       4.58182556       0.00000000      -1.88624749       0.27742667
H        5.00000000       4.27085589       5.41817444       0.00000000     -26.42778505       7.81802522
3
Lattice="10.0 0.0 0.0 0.0 10.0 0.0 0.0 0.0 10.0" Properties=species:S:1:pos:R:3:forces:R:3 energy=-595.6325742922858 pbc="T T T"
O        5.00000000       4.95480697       5.14984613       0.00000000      27.35790539     -10.67066342
H        5.00000000       5.71804597       4.55353713       0.00000000      -1.82388268       0.48093272
H        5.00000000       4.28195403       5.44646287       0.00000000     -25.53402271      10.18973070
3
Lattice="10.0 0.0 0.0 0.0 10.0 0.0 0.0 0.0 10.0" Properties=species:S:1:pos:R:3:forces:R:3 energy=-595.5822537532877 pbc="T T T"
O        5.00000000       4.94141069       5.12257081       0.00000000      26.15104434     -13.20562151
H        5.00000000       5.70464969       4.52626181       0.00000000      -1.72706019       0.69685305
H        5.00000000       4.29535031       5.47373819       0.00000000     -24.42398415      12.50876846
3
Lattice="10.0 0.0 0.0 0.0 10.0 0.0 0.0 0.0 10.0" Properties=species:S:1:pos:R:3:forces:R:3 energy=-595.5512257089439 pbc="T T T"
O        5.00000000       4.92580780       5.09649489       0.00000000      24.70476037     -15.66145245
H        5.00000000       5.68904680       4.50018589       0.00000000      -1.59996463       0.91643764
H        5.00000000       4.31095320       5.49981411       0.00000000     -23.10479574      14.74501481
3
Lattice="10.0 0.0 0.0 0.0 10.0 0.0 0.0 0.0 10.0" Properties=species:S:1:pos:R:3:forces:R:3 energy=-595.5407903918252 pbc="T T T"
O        5.00000000       4.90810486       5.07179652       0.00000000      23.03683736     -17.99939235
H        5.00000000       5.67134386       4.47548752       0.00000000      -1.44774643       1.13042464
H        5.00000000       4.32865614       5.52451248       0.00000000     -21.58909092      16.86896771
3
Lattice="10.0 0.0 0.0 0.0 10.0 0.0 0.0 0.0 10.0" Properties=species:S:1:pos:R:3:forces:R:3 energy=-597.7495084383363 pbc="T T T"
O        5.00000000       4.86529132       5.31603073       0.00000000       9.91047932      10.71052769
H        5.00000000       5.62853032       4.71972173       0.00000000       1.53635852       0.81895631
H        5.00000000       4.37146968       4.68396927       0.00000000     -11.44683784     -11.52948400
3
Lattice="10.0 0.0 0.0 0.0 10.0 0.0 0.0 0.0 10.0" Properties=species:S:1:pos:R:3:forces:R:3 energy=-597.8581079121536 pbc="T T T"
O        5.00000000       4.89054560       5.29815450       0.00000000      10.76516754      10.20696344
H        5.00000000       5.65378460       4.70184550       0.00000000       1.06751393       0.59519252
H        5.00000000       4.34621540       4.70903133       0.00000000     -11.83268147     -10.80215596
3
Lattice="10.0 0.0 0.0 0.0 10.0 0.0 0.0 0.0 10.0" Properties=species:S:1:pos:R:3:forces:R:3 energy=-597.9307975476971 pbc="T T T"
O        5.00000000       4.91394072       5.29815450       0.00000000      11.57985788       9.68292892
H        5.00000000       5.67717972       4.70184550       0.00000000       0.63713426       0.38394447
H        5.00000000       4.32282028       4.75599391       0.00000000     -12.21699213     -10.06687338
3
Lattice="10.0 0.0 0.0 0.0 10.0 0.0 0.0 0.0 10.0" Properties=species:S:1:pos:R:3:forces:R:3 energy=-597.9702840846585 pbc="T T T"
O        5.00000000       4.93531687       5.29815450       0.00000000      12.35509511       9.12459048
H        5.00000000       5.69855587       4.70184550       0.00000000       0.24297370       0.18864643
H        5.00000000       4.30144413       4.80666001       0.00000000     -12.59806881      -9.31323691
3
Lattice="10.0 0.0 0.0 0.0 10.0 0.0 0.0 0.0 10.0" Properties=species:S:1:pos:R:3:forces:R:3 energy=-597.9793621382954 pbc="T T T"
O        5.00000000       4.95452802       5.29815450       0.00000000      13.08872413       8.52228563
H        5.00000000       5.71776702       4.70184550       0.00000000      -0.11776867       0.01074613
H        5.00000000       4.28223298       4.86068350       0.00000000     -12.97095547      -8.53303175
3
Lattice="10.0 0.0 0.0 0.0 10.0 0.0 0.0 0.0 10.0" Properties=species:S:1:pos:R:3:forces:R:3 energy=-597.9609798268091 pbc="T T T"
O        5.00000000       4.97144294       5.29815450       0.00000000      13.77662022       7.86007063
H        5.00000000       5.73468194       4.70184550       0.00000000      -0.44458334      -0.14462025
H        5.00000000       4.26531806       4.91769537       0.00000000     -13.33203688      -7.71545038
3
Lattice="10.0 0.0 0.0 0.0 10.0 0.0 0.0 0.0 10.0" Properties=species:S:1:pos:R:3:forces:R:3 energy=-597.9182817659008 pbc="T T T"
O        5.00000000       4.98594608       5.29815450       0.00000000      14.41221437       7.12665122
H        5.00000000       5.74918508       4.70184550       0.00000000      -0.73842806      -0.27456585
H        5.00000000       4.25081492       4.97730616       0.00000000     -13.67378631      -6.85208536
3
Lattice="10.0 0.0 0.0 0.0 10.0 0.0 0.0 0.0 10.0" Properties=species:S:1:pos:R:3:forces:R:3 energy=-597.8546393457804 pbc="T T T"
O        5.00000000       4.99793838       5.29815450       0.00000000      14.98613505       6.30959955
H        5.00000000       5.76117738       4.70184550       0.00000000      -0.99921684      -0.37501308
H        5.00000000       4.23882262       5.03910868       0.00000000     -13.98691821      -5.93458646
3
Lattice="10.0 0.0 0.0 0.0 10.0 0.0 0.0 0.0 10.0" Properties=species:S:1:pos:R:3:forces:R:3 energy=-597.7736688028297 pbc="T T T"
O        5.00000000       5.00733792       5.29815450       0.00000000      15.48703956       5.40001054
H        5.00000000       5.77057692       4.70184550       0.00000000      -1.22675632      -0.44276145
H        5.00000000       4.22942308       5.10268073       0.00000000     -14.26028324      -4.95724909
3
Lattice="10.0 0.0 0.0 0.0 10.0 0.0 0.0 0.0 10.0" Properties=species:S:1:pos:R:3:forces:R:3 energy=-597.6792286151505 pbc="T T T"
O        5.00000000       5.01408048       5.29815450       0.00000000      15.90178456       4.38946782
H        5.00000000       5.77731948       4.70184550       0.00000000      -1.42027909      -0.47438415
H        5.00000000       4.22268052       5.16758807       0.00000000     -14.48150547      -3.91508367
3
Lattice="10.0 0.0 0.0 0.0 10.0 0.0 0.0 0.0 10.0" Properties=species:S:1:pos:R:3:forces:R:3 energy=-597.5754000962835 pbc="T T T"
O        5.00000000       5.01812001       5.29815450       0.00000000      16.21649288       3.27407676
H        5.00000000       5.78135901       4.70184550       0.00000000      -1.57844108      -0.46746861
H        5.00000000       4.21864099       5.23338731       0.00000000     -14.63805180      -2.80660815
3
Lattice="10.0 0.0 0.0 0.0 10.0 0.0 0.0 0.0 10.0" Properties=species:S:1:pos:R:3:forces:R:3 energy=-597.4664390114946 pbc="T T T"
O        5.00000000       5.01942891       5.29741726       0.00000000      16.41597656       2.05280072
H        5.00000000       5.78266791       4.70110826       0.00000000      -1.69905157      -0.42021239
H        5.00000000       4.21733209       5.29889174       0.00000000     -14.71692499      -1.63258833
3
Lattice="10.0 0.0 0.0 0.0 10.0 0.0 0.0 0.0 10.0" Properties=species:S:1:pos:R:3:forces:R:3 energy=-597.3566983541488 pbc="T T T"
O        5.00000000       5.01799825       5.26430146       0.00000000      16.48385918       0.73219334
H        5.00000000       5.78123725       4.66799246       0.00000000      -1.78307612      -0.33318350
H        5.00000000       4.21876275       5.33200754       0.00000000     -14.70078306      -0.39900984
3
Lattice="10.0 0.0 0.0 0.0 10.0 0.0 0.0 0.0 10.0" Properties=species:S:1:pos:R:3:forces:R:3 energy=-597.2505260288227 pbc="T T T"
O        5.00000000       5.01383779       5.23141692       0.00000000      16.40656933      -0.67814769
H        5.00000000       5.77707679       4.63510792       0.00000000      -1.82859842      -0.20764084
H        5.00000000       4.22292321       5.36489208       0.00000000     -14.57797090       0.88578853
3
Lattice="10.0 0.0 0.0 0.0 10.0 0.0 0.0 0.0 10.0" Properties=species:S:1:pos:R:3:forces:R:3 energy=-597.1521412783591 pbc="T T T"
O        5.00000000       5.00697596       5.19898826       0.00000000      16.17211565      -2.16217786
H        5.00000000       5.77021496       4.60267926       0.00000000      -1.83515628      -0.04703827
H        5.00000000       4.22978504       5.39732074       0.00000000     -14.33695937       2.20921613
3
Lattice="10.0 0.0 0.0 0.0 10.0 0.0 0.0 0.0 10.0" Properties=species:S:1:pos:R:3:forces:R:3 energy=-597.0654909048302 pbc="T T T"
O        5.00000000       4.99745962       5.16723700       0.00000000      15.77267799      -3.69841530
H        5.00000000       5.76069862       4.57092800       0.00000000      -1.80275521       0.14308622
H        5.00000000       4.23930138       5.42907200       0.00000000     -13.96992278       3.55532907
3
Lattice="10.0 0.0 0.0 0.0 10.0 0.0 0.0 0.0 10.0" Properties=species:S:1:pos:R:3:forces:R:3 energy=-596.9940957735854 pbc="T T T"
O        5.00000000       4.98535379       5.13638004       0.00000000      15.20423275      -5.26063120
H        5.00000000       5.74859279       4.54007104       0.00000000      -1.73274426       0.35566101
H        5.00000000       4.25140721       5.45992896       0.00000000     -13.47148848       4.90497019
3
Lattice="10.0 0.0 0.0 0.0 10.0 0.0 0.0 0.0 10.0" Properties=species:S:1:pos:R:3:forces:R:3 energy=-596.9408945317576 pbc="T T T"
O        5.00000000       4.97074116       5.10662817       0.00000000      14.46931315      -6.81879111
H        5.00000000       5.73398016       4.51031917       0.00000000      -1.62799042       0.58208941
H        5.00000000       4.26601984       5.48968083       0.00000000     -12.84132273       6.23670170
3
Lattice="10.0 0.0 0.0 0.0 10.0 0.0 0.0 0.0 10.0" Properties=species:S:1:pos:R:3:forces:R:3 energy=-596.9080974385164 pbc="T T T"
O        5.00000000       4.95372155       5.07818462       0.00000000      13.57582560      -8.34157032
H        5.00000000       5.71696055       4.48187562       0.00000000      -1.49206018       0.81305014
H        5.00000000       4.28303945       5.51812438       0.00000000     -12.08376542       7.52852018
3
Lattice="10.0 0.0 0.0 0.0 10.0 0.0 0.0 0.0 10.0" Properties=species:S:1:pos:R:3:forces:R:3 energy=-596.8970726829159 pbc="T T T"
O        5.00000000       4.93441123       5.05124368       0.00000000      12.53852815      -9.79707947
H        5.00000000       5.69765023       4.45493468       0.00000000      -1.33072526       1.03877650
H        5.00000000       4.30234977       5.54506532       0.00000000     -11.20780290       8.75830297
3
Lattice="10.0 0.0 0.0 0.0 10.0 0.0 0.0 0.0 10.0" Properties=species:S:1:pos:R:3:forces:R:3 energy=-598.5276077157341 pbc="T T T"
O        5.00000000       4.88584415       5.34233709       0.00000000       4.64823134       4.44261553
H        5.00000000       5.64908315       4.74602809       0.00000000       1.42410606       0.71777425
H        5.00000000       4.35091685       4.65766291       0.00000000      -6.07233741      -5.16038978
3
Lattice="10.0 0.0 0.0 0.0 10.0 0.0 0.0 0.0 10.0" Properties=species:S:1:pos:R:3:forces:R:3 energy=-598.6247831935033 pbc="T T T"
O        5.00000000       4.91320060       5.31908087       0.00000000       5.00730680       4.36827742
H        5.00000000       5.67643960       4.72277187       0.00000000       0.98247918       0.48856758
H        5.00000000       4.32356040       4.68091913       0.00000000      -5.98978599      -4.85684500
3
Lattice="10.0 0.0 0.0 0.0 10.0 0.0 0.0 0.0 10.0" Properties=species:S:1:pos:R:3:forces:R:3 energy=-598.6869657092143 pbc="T T T"
O        5.00000000       4.93854313       5.29815450       0.00000000       5.36055712       4.31275570
H        5.00000000       5.70178213       4.70184550       0.00000000       0.57587721       0.27192740
H        5.00000000       4.29821787       4.71086451       0.00000000      -5.93643433      -4.58468310
3
Lattice="10.0 0.0 0.0 0.0 10.0 0.0 0.0 0.0 10.0" Properties=species:S:1:pos:R:3:forces:R:3 energy=-598.7167055345593 pbc="T T T"
O        5.00000000       4.96169862       5.29815450       0.00000000       5.71146066       4.26173675
H        5.00000000       5.72493762       4.70184550       0.00000000       0.20230446       0.07028186
H        5.00000000       4.27506238       4.76574805       0.00000000      -5.91376512      -4.33201860
3
Lattice="10.0 0.0 0.0 0.0 10.0 0.0 0.0 0.0 10.0" Properties=species:S:1:pos:R:3:forces:R:3 energy=-598.7166637718692 pbc="T T T"
O        5.00000000       4.98250891       5.29815450       0.00000000       6.06127598       4.19830034
H        5.00000000       5.74574791       4.70184550       0.00000000      -0.13970364      -0.11251584
H        5.00000000       4.25425209       4.82426846       0.00000000      -5.92157234      -4.08578450
3
Lattice="10.0 0.0 0.0 0.0 10.0 0.0 0.0 0.0 10.0" Properties=species:S:1:pos:R:3:forces:R:3 energy=-598.6896657672573 pbc="T T T"
O        5.00000000       5.00083182       5.29815450       0.00000000       6.40800530       4.10777777
H        5.00000000       5.76407082       4.70184550       0.00000000      -0.45004091      -0.27353314
H        5.00000000       4.23592918       4.88602599       0.00000000      -5.95796440      -3.83424464
3
Lattice="10.0 0.0 0.0 0.0 10.0 0.0 0.0 0.0 10.0" Properties=species:S:1:pos:R:3:forces:R:3 energy=-598.6387503019573 pbc="T T T"
O        5.00000000       5.01654221       5.29815450       0.00000000       6.74811018       3.97341259
H        5.00000000       5.77978121       4.70184550       0.00000000      -0.72957595      -0.40863882
H        5.00000000       4.22021879       4.95059878       0.00000000      -6.01853422      -3.56477377
3